/*--------------------------------*- C++ -*----------------------------------*\
  =========                 |
  \\      /  F ield         | OpenFOAM: The Open Source CFD Toolbox
   \\    /   O peration     | Website:  https://openfoam.org
    \\  /    A nd           | Version:  6
     \\/     M anipulation  |
\*---------------------------------------------------------------------------*/
FoamFile
{
    version     2.0;
    format      ascii;
    class       surfaceScalarField;
    location    "44";
    object      phi;
}
// * * * * * * * * * * * * * * * * * * * * * * * * * * * * * * * * * * * * * //

dimensions      [0 3 -1 0 0 0 0];

internalField   nonuniform List<scalar> 
165290
(
6.364024263434e-11
-6.364014339731e-11
1.034991056014e-06
-1.034991056113e-06
1.894551502979e-10
-1.258148196147e-10
1.034877550042e-06
-1.03487755013e-06
4.300526391272e-10
-2.405974285991e-10
1.034728628519e-06
-1.034728628578e-06
7.984175835107e-10
-3.683649156132e-10
1.034560007635e-06
-1.034560007663e-06
1.219689498441e-09
-4.212719059373e-10
1.034411387639e-06
-1.034411387648e-06
1.658731659368e-09
-4.390421321186e-10
1.034298863299e-06
-1.034298863328e-06
2.144168581255e-09
-4.854368236766e-10
1.03419634347e-06
-1.034196343568e-06
2.756848223543e-09
-6.126794187824e-10
1.034039501919e-06
-1.034039502143e-06
2.878515208978e-09
-1.216665734852e-10
1.033771648447e-06
-1.033771648859e-06
3.524799799244e-12
2.874991093084e-09
1.033326360856e-06
-1.03332636154e-06
-1.164729212955e-08
1.16508182906e-08
1.0323393566e-06
-1.032339357961e-06
-3.582747163205e-08
2.418017948162e-08
1.027351516976e-06
-1.027351516955e-06
-6.452659909766e-08
2.869912411584e-08
1.019247224046e-06
-1.019247220697e-06
-8.126784287939e-08
1.674126210611e-08
1.011776126139e-06
-1.011776144464e-06
-4.971789878055e-09
1.006640728809e-06
-1.006640818939e-06
-7.629596287212e-08
5.52280830098e-11
-1.188681230463e-10
9.75557307881e-07
-9.755573079827e-07
2.051518140319e-10
-2.757384963339e-10
9.751719239737e-07
-9.751719240263e-07
5.604556290631e-10
-5.959013227528e-10
9.746659140323e-07
-9.746659139516e-07
1.12461351902e-09
-9.325230411373e-10
9.741087527233e-07
-9.741087524863e-07
1.708338874965e-09
-1.004997604559e-09
9.736486672423e-07
-9.736486668983e-07
2.092391879852e-09
-8.230954644191e-10
9.733369599626e-07
-9.733369596339e-07
2.020156895899e-09
-4.132020464217e-10
9.730738027051e-07
-9.730738024973e-07
8.213434243994e-10
5.861340428078e-10
9.726153750134e-07
-9.726153750025e-07
-3.767266388366e-09
4.466943339337e-09
9.71574342828e-07
-9.715743429272e-07
-1.592288931258e-08
1.503061438511e-08
9.688282325876e-07
-9.688282329546e-07
-3.70872251736e-08
3.281515538894e-08
9.632432964599e-07
-9.632432976966e-07
-6.087710840322e-08
4.797006227847e-08
9.557006998677e-07
-9.557006994345e-07
-7.558143885731e-08
4.340345180262e-08
9.506607617503e-07
-9.50660758983e-07
-7.444775888421e-08
1.560758922611e-08
9.510951734608e-07
-9.510951805538e-07
-1.676925620888e-08
9.530824736852e-07
-9.530825047265e-07
-6.265026151214e-08
-6.704107262814e-11
-5.182697410975e-11
9.160918938024e-07
-9.160918938777e-07
-8.045924139965e-11
-2.623203711674e-10
9.153411356687e-07
-9.15341135624e-07
1.577389579865e-10
-8.340998311186e-10
9.143551984068e-07
-9.143551980967e-07
6.291829722117e-10
-1.403967659451e-09
9.133316838645e-07
-9.133316832594e-07
1.045565546681e-09
-1.421380943148e-09
9.125923201342e-07
-9.125923193691e-07
1.043462470397e-09
-8.209930898357e-10
9.121855541752e-07
-9.121855534725e-07
1.496781703386e-10
4.805817545851e-10
9.118377430863e-07
-9.118377425865e-07
-2.859774027308e-09
3.595585900117e-09
9.109974895608e-07
-9.109974892195e-07
-1.012637290322e-08
1.173354167431e-08
9.08548873874e-07
-9.085488733323e-07
-2.27298460064e-08
2.763408748612e-08
9.034809654022e-07
-9.034809653993e-07
-3.763978589591e-08
4.772509672508e-08
8.965178361303e-07
-8.965178375763e-07
-4.769654084384e-08
5.802681774488e-08
8.910351008224e-07
-8.910351013403e-07
-4.70482778079e-08
4.275518737195e-08
8.907343622668e-07
-8.907343608717e-07
-3.8403449847e-08
6.962761423751e-09
8.939709362267e-07
-8.939709363847e-07
-2.564603969526e-08
8.95858246956e-07
-8.958582666332e-07
-2.952664668325e-08
-2.902052087157e-10
2.383782682082e-10
8.565758856038e-07
-8.565758856366e-07
-6.002191705476e-10
4.769339716037e-11
8.553101393229e-07
-8.553101391286e-07
-6.228243371101e-10
-8.114952805872e-10
8.536776683902e-07
-8.536776677735e-07
-4.114981558295e-10
-1.615294854972e-09
8.521429443782e-07
-8.521429433632e-07
-3.333215621585e-10
-1.499558691344e-09
8.512237212713e-07
-8.512237201161e-07
-8.005145234522e-10
-3.538011503507e-10
8.508395718747e-07
-8.508395708521e-07
-2.357047815702e-09
2.037114187587e-09
8.504011050293e-07
-8.504011041694e-07
-5.925327295505e-09
7.16386440008e-09
8.489101240624e-07
-8.48910123082e-07
-1.202938023927e-08
1.783759327597e-08
8.451954542174e-07
-8.451954528748e-07
-1.93845246657e-08
3.498923137509e-08
8.391004479346e-07
-8.391004473967e-07
-2.452138709126e-08
5.286196120223e-08
8.326334981611e-07
-8.326335002123e-07
-2.364979322956e-08
5.715522641781e-08
8.294186863509e-07
-8.294186888853e-07
-1.674988916642e-08
3.585528535354e-08
8.307652690731e-07
-8.307652711178e-07
-8.967889770883e-09
-8.192326077942e-10
8.318138703809e-07
-8.318138757449e-07
-3.121551901679e-08
8.302975128677e-07
-8.302975306348e-07
-3.398392681895e-09
-5.623304412235e-10
8.007087151846e-10
7.969963903215e-07
-7.969963903269e-07
-1.225847029371e-09
7.112096575024e-10
7.950380573699e-07
-7.950380570416e-07
-1.581639342278e-09
-4.557038289638e-10
7.926165364144e-07
-7.926165355526e-07
-1.713078708846e-09
-1.483856729738e-09
7.906080432654e-07
-7.906080420235e-07
-1.985433931103e-09
-1.227204797472e-09
7.896242898935e-07
-7.896242885645e-07
-2.760423103977e-09
4.211867378495e-10
7.892673445665e-07
-7.892673432813e-07
-4.396888545155e-09
3.673578235299e-09
7.885962702228e-07
-7.885962688287e-07
-7.072178009956e-09
9.839152048773e-09
7.864917985811e-07
-7.864917967644e-07
-1.000408715247e-08
2.076950026382e-08
7.821316381974e-07
-7.821316360422e-07
-1.116171872763e-08
3.6146861604e-08
7.759708710964e-07
-7.759708697495e-07
-8.356666070409e-09
5.005691031877e-08
7.703030516839e-07
-7.70303053457e-07
-1.137386732153e-09
4.993595126552e-08
7.681415156515e-07
-7.681415198368e-07
6.74167740085e-09
2.797622523887e-08
7.698129295938e-07
-7.698129336117e-07
1.099725894906e-08
-5.074807561536e-09
7.700172302039e-07
-7.700172367977e-07
-3.2105119122e-08
7.692723562729e-07
-7.692723742081e-07
1.188687699077e-08
-8.277075587257e-10
1.628416282794e-09
7.373551359739e-07
-7.373551359818e-07
-1.840284871033e-09
1.723786595348e-09
7.34545498792e-07
-7.345454984166e-07
-2.56470331585e-09
2.687137549216e-10
7.312638424966e-07
-7.312638416348e-07
-3.071119109256e-09
-9.774420131978e-10
7.288477000158e-07
-7.288476989379e-07
-3.631054069223e-09
-6.672710615e-10
7.278049809175e-07
-7.278049796926e-07
-4.452134576597e-09
1.2422657053e-09
7.273603330766e-07
-7.273603315358e-07
-5.588789021915e-09
4.810230606869e-09
7.264002308227e-07
-7.264002287482e-07
-6.655408315832e-09
1.090576860105e-08
7.239523620867e-07
-7.239523593444e-07
-6.331054378345e-09
2.044514331454e-08
7.195408316194e-07
-7.195408286069e-07
-2.805088880561e-09
3.262089386431e-08
7.13799358972e-07
-7.137993567295e-07
4.932952431672e-09
4.231886919298e-08
7.086968773351e-07
-7.08696877521e-07
1.51959051756e-08
3.967300174639e-08
7.067141991117e-07
-7.067142023361e-07
2.307182271999e-08
2.010031148866e-08
7.076078243788e-07
-7.076078281725e-07
2.528945510589e-08
-7.29243343607e-09
7.077145594844e-07
-7.077145659959e-07
-2.953364965387e-08
7.074097385667e-07
-7.074097578869e-07
2.271800495689e-08
-9.96594623615e-10
2.625010957716e-09
6.776777925485e-07
-6.776777925989e-07
-2.275087449024e-09
3.002279188287e-09
6.739304173166e-07
-6.739304170831e-07
-3.349178038226e-09
1.342803910497e-09
6.697795812123e-07
-6.697795807775e-07
-4.197371336912e-09
-1.292491192351e-10
6.669516989055e-07
-6.669516984996e-07
-4.915048059779e-09
5.040492166794e-11
6.657224241022e-07
-6.657224233614e-07
-5.54679834402e-09
1.874014425152e-09
6.650589450715e-07
-6.65058943506e-07
-5.942498070472e-09
5.205927763667e-09
6.638629036829e-07
-6.638629011123e-07
-5.4896544648e-09
1.045292151611e-08
6.61366024013e-07
-6.613660205328e-07
-2.906768761552e-09
1.786225378823e-08
6.572927796727e-07
-6.572927758488e-07
3.095392146637e-09
2.661872996603e-08
6.521697775056e-07
-6.521697745148e-07
1.283451753314e-08
3.257974241585e-08
6.474983497211e-07
-6.474983483299e-07
2.357827682826e-08
2.892924326524e-08
6.452680784817e-07
-6.452680792951e-07
3.075834784687e-08
1.292024253141e-08
6.451092785211e-07
-6.451092805822e-07
3.191124720524e-08
-8.445327510787e-09
6.450942293414e-07
-6.450942346243e-07
-2.531488995587e-08
6.455864356907e-07
-6.45586453576e-07
2.769250539163e-08
-9.989754289055e-10
3.623986529276e-09
6.180140020966e-07
-6.180140022375e-07
-2.379794924611e-09
4.383098824312e-09
6.133458272167e-07
-6.133458273554e-07
-3.691402465795e-09
2.654411854115e-09
6.083432122609e-07
-6.083432126617e-07
-4.771801749032e-09
9.511508878071e-10
6.049981487666e-07
-6.04998149489e-07
-5.519533844704e-09
7.98137328886e-10
6.03389807146e-07
-6.033898074561e-07
-5.861162162171e-09
2.215641892694e-09
6.024087715815e-07
-6.024087707303e-07
-5.577079081381e-09
4.921842416568e-09
6.010563355912e-07
-6.010563333238e-07
-4.089071956391e-09
8.964910908173e-09
5.987155295715e-07
-5.987155260876e-07
-4.091134619162e-10
1.418229116691e-08
5.951798801869e-07
-5.951798760592e-07
6.300862536006e-09
1.990875035974e-08
5.907634179821e-07
-5.907634143732e-07
1.598916043356e-08
2.289144218222e-08
5.865886223638e-07
-5.865886200274e-07
2.591970767195e-08
1.899869515588e-08
5.841316987184e-07
-5.841316978474e-07
3.256113464642e-08
6.278816338018e-09
5.833314699094e-07
-5.833314706904e-07
3.382448611425e-08
-9.708674599059e-09
5.833076055259e-07
-5.833076099054e-07
-2.18582875796e-08
5.850968435886e-07
-5.850968592587e-07
3.036789940705e-08
-7.584639146719e-10
4.382450740134e-09
5.584355820644e-07
-5.584355823601e-07
-1.989108655532e-09
5.613744244066e-09
5.529987435088e-07
-5.529987441872e-07
-3.363857241878e-09
4.029161850892e-09
5.471898568165e-07
-5.471898582264e-07
-4.575742022854e-09
2.163037707543e-09
5.43179804895e-07
-5.431798069333e-07
-5.314571519478e-09
1.536968747367e-09
5.409786105005e-07
-5.409786124218e-07
-5.415369621443e-09
2.316441050446e-09
5.395514739106e-07
-5.395514749661e-07
-4.69147599077e-09
4.197948463069e-09
5.380441839782e-07
-5.380441836551e-07
-2.748973293793e-09
7.022406453833e-09
5.359256058443e-07
-5.359256040866e-07
1.0609735453e-09
1.037234152765e-08
5.329713881635e-07
-5.329713853629e-07
7.178415144454e-09
1.379130568479e-08
5.293153193485e-07
-5.293153162723e-07
1.53144880021e-08
1.475536699767e-08
5.257671071412e-07
-5.257671048136e-07
2.297102951739e-08
1.134215236268e-08
5.233470544513e-07
-5.233470531724e-07
2.748023775796e-08
1.769608487758e-09
5.225290188699e-07
-5.225290192587e-07
2.704801595975e-08
-9.276448345143e-09
5.224632075186e-07
-5.224632119717e-07
-1.697331365142e-08
5.275492743775e-07
-5.275492846755e-07
2.216305233056e-08
-3.200529661546e-10
4.99000666653e-07
-4.990006670734e-07
4.702504126384e-09
-1.123041882627e-09
4.930793402425e-07
-4.930793414925e-07
6.416734409932e-09
-2.275223021303e-09
4.865825341978e-07
-4.865825365127e-07
5.181345304e-09
-3.431307196204e-09
4.818353528983e-07
-4.818353559084e-07
3.319124892075e-09
-4.159181532162e-09
4.789049665195e-07
-4.78904969801e-07
2.264846364323e-09
-4.189147949386e-09
4.768668497739e-07
-4.768668530668e-07
2.346410760113e-09
-3.3411429689e-09
4.750510415313e-07
-4.750510443357e-07
3.349946286719e-09
-1.386597533027e-09
4.73034086783e-07
-4.730340886352e-07
5.067862869752e-09
2.026268517539e-09
4.705662169522e-07
-4.705662177864e-07
6.959476311709e-09
7.142187597892e-09
4.67639877263e-07
-4.67639877332e-07
8.675386673934e-09
1.357587792973e-08
4.6483991851e-07
-4.64839918582e-07
8.321676739164e-09
1.992789498002e-08
4.628264894728e-07
-4.628264900117e-07
4.990135853032e-09
2.458789499159e-08
4.624300104945e-07
-4.624300124293e-07
-2.890389585891e-09
2.792799730775e-08
4.634851276591e-07
-4.634851316601e-07
-1.261654665663e-08
4.752874103557e-07
-4.752874317942e-07
-2.223775203553e-08
3.319245713018e-08
6.364022767106e-11
-6.364013520899e-11
1.034991055925e-06
1.894551327777e-10
-1.258148144747e-10
1.034877549955e-06
4.300526231521e-10
-2.405974153215e-10
1.034728628447e-06
7.984175617052e-10
-3.683648884135e-10
1.034560007588e-06
1.219689493621e-09
-4.21271909769e-10
1.03441138762e-06
1.658731712236e-09
-4.39042201367e-10
1.034298863285e-06
2.144168692873e-09
-4.854369428502e-10
1.034196343435e-06
2.756848375837e-09
-6.126795976095e-10
1.034039501837e-06
2.878515469438e-09
-1.216669628216e-10
1.033771648319e-06
3.525878631586e-12
2.874989802365e-09
1.033326360647e-06
-1.164729011335e-08
1.165081631448e-08
1.03233935628e-06
-3.582746753842e-08
2.418017714889e-08
1.027351517254e-06
-6.45265851048e-08
2.86991201569e-08
1.019247221457e-06
-8.12678331947e-08
1.674125846541e-08
1.011776115765e-06
-4.971802934423e-09
1.006640707483e-06
-7.629600893273e-08
5.522808321389e-11
-1.188681330727e-10
9.755573077971e-07
2.051518783935e-10
-2.757385515952e-10
9.751719239171e-07
5.604557536547e-10
-5.959013518049e-10
9.746659140949e-07
1.124613670317e-09
-9.325230221835e-10
9.741087529417e-07
1.708339086711e-09
-1.004997666081e-09
9.736486675835e-07
2.09239224974e-09
-8.230957241074e-10
9.733369603234e-07
2.02015754204e-09
-4.132025405947e-10
9.730738030113e-07
8.213445612376e-10
5.861331679132e-10
9.726153752296e-07
-3.767264012388e-09
4.46694138015e-09
9.71574343059e-07
-1.592288511575e-08
1.503061077001e-08
9.68828232724e-07
-3.708722002121e-08
3.281515123737e-08
9.632432964426e-07
-6.087710116462e-08
4.797005820185e-08
9.557006999583e-07
-7.558142704527e-08
4.340344746467e-08
9.506607603232e-07
-7.444774784788e-08
1.560758886806e-08
9.510951638605e-07
-1.676924846799e-08
9.530824614545e-07
-6.265029008375e-08
-6.704101058256e-11
-5.182706203075e-11
9.160918937432e-07
-8.045902463684e-11
-2.623205599728e-10
9.153411356923e-07
1.577393141656e-10
-8.34099955507e-10
9.143551986729e-07
6.291834276225e-10
-1.403967694732e-09
9.133316844247e-07
1.045566156745e-09
-1.421381129206e-09
9.125923208693e-07
1.043463388398e-09
-8.209936687426e-10
9.121855548891e-07
1.496796488677e-10
4.805806081629e-10
9.11837743678e-07
-2.859771382847e-09
3.595583662695e-09
9.109974900983e-07
-1.012636825986e-08
1.1733537486e-08
9.085488746461e-07
-2.272983943692e-08
2.76340817248e-08
9.034809656249e-07
-3.763977923189e-08
4.772509161533e-08
8.965178355478e-07
-4.769653477655e-08
5.802681446858e-08
8.910351001004e-07
-4.7048272375e-08
4.275518530873e-08
8.907343620211e-07
-3.840344616768e-08
6.962762071559e-09
8.939709368159e-07
-2.564603349892e-08
8.958582437189e-07
-2.952665789978e-08
-2.902050753716e-10
2.383780338165e-10
8.565758855841e-07
-6.002187868079e-10
4.769300928177e-11
8.553101394659e-07
-6.22823718582e-10
-8.114955451218e-10
8.536776689124e-07
-4.114973068538e-10
-1.615295004668e-09
8.521429452772e-07
-3.333203824028e-10
-1.499559099223e-09
8.512237223176e-07
-8.005128309415e-10
-3.538021859158e-10
8.508395728411e-07
-2.35704523465e-09
2.037112110925e-09
8.504011059308e-07
-5.925323255486e-09
7.163860561433e-09
8.489101251851e-07
-1.202937439984e-08
1.783758718748e-08
8.451954556607e-07
-1.938451709624e-08
3.498922412494e-08
8.391004482313e-07
-2.452137919056e-08
5.286195566484e-08
8.326334962062e-07
-2.36497866497e-08
5.715522449215e-08
8.294186837866e-07
-1.674988570668e-08
3.585528660311e-08
8.307652668357e-07
-8.967893858996e-09
-8.192283641417e-10
8.31813868969e-07
-3.121551383323e-08
8.302975163874e-07
-3.398417043362e-09
-5.623302556404e-10
8.007083067669e-10
7.969963903048e-07
-1.225846505376e-09
7.11209049971e-10
7.950380575796e-07
-1.58163844113e-09
-4.557042668204e-10
7.926165370725e-07
-1.713077356412e-09
-1.483857069959e-09
7.906080442466e-07
-1.985432013725e-09
-1.22720551006e-09
7.896242909622e-07
-2.760420472321e-09
4.211851752079e-10
7.892673456645e-07
-4.396884941079e-09
3.673575267666e-09
7.885962715354e-07
-7.072173251432e-09
9.839147056526e-09
7.864918003968e-07
-1.000408148272e-08
2.07694932733e-08
7.821316403433e-07
-1.116171236316e-08
3.614685410426e-08
7.75970871998e-07
-8.356659388347e-09
5.00569052071e-08
7.703030491671e-07
-1.137380770827e-09
4.993595045474e-08
7.681415110717e-07
6.741681219155e-09
2.797622846257e-08
7.698129257447e-07
1.099725766209e-08
-5.074802679556e-09
7.700172280767e-07
-3.210511653681e-08
7.692723613689e-07
1.188685527107e-08
-8.2770737102e-10
1.62841569998e-09
7.373551359524e-07
-1.84028427286e-09
1.723785761899e-09
7.345454989826e-07
-2.564702151102e-09
2.687130801784e-10
7.312638430285e-07
-3.071117233936e-09
-9.774426405938e-10
7.2884770067e-07
-3.631051427123e-09
-6.672721127422e-10
7.27804981714e-07
-4.452131170936e-09
1.242263732428e-09
7.273603342638e-07
-5.588784857048e-09
4.810227142298e-09
7.264002326347e-07
-6.655403540227e-09
1.090576320997e-08
7.239523646169e-07
-6.331049514947e-09
2.044513639802e-08
7.195408344699e-07
-2.805084480749e-09
3.262088712295e-08
7.137993609194e-07
4.932956543078e-09
4.231886521342e-08
7.086968763053e-07
1.519590907608e-08
3.967300197133e-08
7.067141950623e-07
2.307182581161e-08
2.010031554868e-08
7.076078205574e-07
2.5289454417e-08
-7.292428522216e-09
7.07714556722e-07
-2.953364626293e-08
7.074097422482e-07
2.271798046064e-08
-9.965944927465e-10
2.625010288153e-09
6.776777924539e-07
-2.275086875691e-09
3.002278205357e-09
6.739304172569e-07
-3.349176770212e-09
1.342803030634e-09
6.697795811572e-07
-4.197369242188e-09
-1.292499751965e-10
6.669516987129e-07
-4.91504516785e-09
5.040371042109e-11
6.657224242055e-07
-5.546794788579e-09
1.874012416513e-09
6.650589460088e-07
-5.942494072431e-09
5.205924452218e-09
6.638629056575e-07
-5.489650381404e-09
1.045291661301e-08
6.613660269196e-07
-2.906765111037e-09
1.786224780837e-08
6.572927829926e-07
3.095394806701e-09
2.66187245417e-08
6.521697801697e-07
1.283451930811e-08
3.257973971733e-08
6.474983507162e-07
2.357827820329e-08
2.892924439611e-08
6.452680771621e-07
3.075834884242e-08
1.292024667728e-08
6.451092767538e-07
3.191124606533e-08
-8.445323636686e-09
6.45094227233e-07
-2.531488905874e-08
6.455864390365e-07
2.769248551521e-08
-9.989754097266e-10
3.623985911371e-09
6.180140018839e-07
-2.379794550422e-09
4.383097873753e-09
6.133458266899e-07
-3.691401495763e-09
2.654410962578e-09
6.083432112751e-07
-4.771800135415e-09
9.511500564603e-10
6.049981473755e-07
-5.519531617373e-09
7.981362832672e-10
6.03389806056e-07
-5.861159418205e-09
2.215640292292e-09
6.024087715073e-07
-5.577076096498e-09
4.921839890982e-09
6.010563368315e-07
-4.089069166954e-09
8.964907264927e-09
5.987155319907e-07
-4.091113008562e-10
1.418228681711e-08
5.951798833126e-07
6.300863779494e-09
1.99087465907e-08
5.907634208532e-07
1.598916089814e-08
2.289144063468e-08
5.865886243281e-07
2.591970786514e-08
1.899869672443e-08
5.841316994232e-07
3.256113446625e-08
6.278820365816e-09
5.833314696196e-07
3.382448212069e-08
-9.708669638426e-09
5.833076038741e-07
-2.185827536606e-08
5.850968458881e-07
3.036786612917e-08
-7.584640509298e-10
4.38245032569e-09
5.584355817013e-07
-1.989108608801e-09
5.61374350574e-09
5.52998742435e-07
-3.363856908622e-09
4.029161180261e-09
5.471898548989e-07
-4.57574151487e-09
2.163037191962e-09
5.43179802366e-07
-5.314570820444e-09
1.536968141416e-09
5.409786079481e-07
-5.415368630525e-09
2.316440084306e-09
5.395514719288e-07
-4.69147480474e-09
4.197946958311e-09
5.380441830853e-07
-2.748972259246e-09
7.022404357392e-09
5.359256062065e-07
1.060974077319e-09
1.03723390921e-08
5.329713895521e-07
7.17841503484e-09
1.379130378731e-08
5.293153211947e-07
1.531448751443e-08
1.475536669646e-08
5.257671086002e-07
2.297102906382e-08
1.134215444874e-08
5.233470551783e-07
2.748023703364e-08
1.769612769136e-09
5.225290184984e-07
2.704800991227e-08
-9.276440977655e-09
5.224632059815e-07
-1.697330879499e-08
5.27549275317e-07
2.216304240465e-08
-3.200531761572e-10
4.990006662492e-07
4.702503906029e-09
-1.123042095836e-09
4.930793387792e-07
6.416733889053e-09
-2.27522323839e-09
4.865825317694e-07
5.181344751466e-09
-3.43130762829e-09
4.818353499988e-07
3.319124481609e-09
-4.159182217678e-09
4.789049633348e-07
2.264845915775e-09
-4.189148708745e-09
4.768668463457e-07
2.346410003695e-09
-3.341143669145e-09
4.750510382884e-07
3.349945161759e-09
-1.386598256767e-09
4.730340842342e-07
5.067861494091e-09
2.026267602792e-09
4.705662153254e-07
6.95947485973e-09
7.142186461885e-09
4.67639876481e-07
8.675385710845e-09
1.357587699743e-08
4.648399179383e-07
8.321676733406e-09
1.992789498872e-08
4.628264885576e-07
4.990137373693e-09
2.458789845041e-08
4.624300077419e-07
-2.890387938467e-09
2.792801183748e-08
4.634851207656e-07
-1.261654746968e-08
4.752874005895e-07
-2.223775586942e-08
3.319246867648e-08
6.364013430839e-11
-6.364016042698e-11
1.034991055951e-06
1.894550227847e-10
-1.258149510897e-10
1.034877550017e-06
4.300525370039e-10
-2.405976667353e-10
1.034728628599e-06
7.984175124079e-10
-3.683652394045e-10
1.034560007851e-06
1.219689494255e-09
-4.21272351738e-10
1.03441138799e-06
1.658731773225e-09
-4.390427181651e-10
1.034298863723e-06
2.144168788061e-09
-4.854375054381e-10
1.034196343925e-06
2.756848486352e-09
-6.126802390473e-10
1.034039502376e-06
2.878515700559e-09
-1.216678919692e-10
1.033771648996e-06
3.527045759754e-12
2.874987791136e-09
1.033326361509e-06
-1.164728817464e-08
1.165081356856e-08
1.03233935793e-06
-3.582746329078e-08
2.41801726586e-08
1.027351519709e-06
-6.452656550146e-08
2.869910842508e-08
1.019247215241e-06
-8.126781329507e-08
1.674124772543e-08
1.011776115831e-06
-4.971817596842e-09
1.006640755333e-06
-7.629604355031e-08
5.522803667796e-11
-1.188682154584e-10
9.75557307817e-07
2.051518922985e-10
-2.757388945073e-10
9.751719240065e-07
5.60455870854e-10
-5.959019245237e-10
9.746659143757e-07
1.124613884204e-09
-9.325237722195e-10
9.741087534625e-07
1.708339422227e-09
-1.004998601669e-09
9.736486682968e-07
2.092392782343e-09
-8.230968622427e-10
9.733369611085e-07
2.020158408919e-09
-4.132039154704e-10
9.730738037959e-07
8.21346077008e-10
5.861313219571e-10
9.726153760012e-07
-3.767260856613e-09
4.466938119652e-09
9.715743439816e-07
-1.592287975373e-08
1.503060540849e-08
9.68828234004e-07
-3.708721436774e-08
3.281514536098e-08
9.632432992646e-07
-6.087709620907e-08
4.797005177022e-08
9.557007026878e-07
-7.558142205463e-08
4.340343670081e-08
9.506607578928e-07
-7.444774580807e-08
1.560758123849e-08
9.510951541006e-07
-1.676924739043e-08
9.530824597735e-07
-6.265031433433e-08
-6.704098692861e-11
-5.182727007982e-11
9.160918937857e-07
-8.045883944077e-11
-2.623212062251e-10
9.153411358576e-07
1.577397005673e-10
-8.341009415017e-10
9.143551991509e-07
6.291840121348e-10
-1.403968925026e-09
9.13331685267e-07
1.045566986552e-09
-1.421382639404e-09
9.125923219337e-07
1.043464609083e-09
-8.209955585769e-10
9.121855559638e-07
1.496815705043e-10
4.805781294597e-10
9.118377446724e-07
-2.859767965612e-09
3.595579860579e-09
9.109974910965e-07
-1.012636240356e-08
1.17335312016e-08
9.085488760027e-07
-2.27298316453e-08
2.763407333127e-08
9.034809669443e-07
-3.76397726254e-08
4.772508400774e-08
8.965178378812e-07
-4.769653210728e-08
5.802680877004e-08
8.910351025823e-07
-4.704827546583e-08
4.275517827604e-08
8.907343638039e-07
-3.84034528188e-08
6.96275572075e-09
8.939709396863e-07
-2.564603342474e-08
8.958582405809e-07
-2.952666364726e-08
-2.902049802726e-10
2.383776624838e-10
8.56575885633e-07
-6.002184293191e-10
4.769200825828e-11
8.553101397015e-07
-6.228230435102e-10
-8.114969915511e-10
8.536776695777e-07
-4.114962778269e-10
-1.615296764004e-09
8.521429463515e-07
-3.3331890878e-10
-1.499561244466e-09
8.512237235545e-07
-8.005107300494e-10
-3.538049212948e-10
8.50839574026e-07
-2.357042048219e-09
2.03710828521e-09
8.50401107094e-07
-5.925318292299e-09
7.16385465097e-09
8.489101266393e-07
-1.202936748563e-08
1.783757849348e-08
8.451954575627e-07
-1.938450903735e-08
3.498921382225e-08
8.391004492924e-07
-2.452137260094e-08
5.286194721042e-08
8.326334965675e-07
-2.364978471182e-08
5.715521998403e-08
8.294186846835e-07
-1.674989174307e-08
3.58552837484e-08
8.307652683946e-07
-8.967909640653e-09
-8.192309289522e-10
8.31813873517e-07
-3.121551627234e-08
8.302975211465e-07
-3.398431550757e-09
-5.623301067878e-10
8.00707733072e-10
7.969963903418e-07
-1.225846007058e-09
7.112076575075e-10
7.950380578314e-07
-1.58163747567e-09
-4.55706220518e-10
7.926165377709e-07
-1.713075816735e-09
-1.483859420423e-09
7.906080452448e-07
-1.985429799984e-09
-1.227208344863e-09
7.896242920466e-07
-2.760417426921e-09
4.211815472834e-10
7.892673468236e-07
-4.396880753651e-09
3.673570182488e-09
7.885962729654e-07
-7.072167727435e-09
9.839139634038e-09
7.864918023882e-07
-1.000407512738e-08
2.076948339989e-08
7.821316428372e-07
-1.116170614405e-08
3.614684339435e-08
7.75970873443e-07
-8.35665462778e-09
5.005689685491e-08
7.703030480066e-07
-1.137379447134e-09
4.993594652295e-08
7.681415093526e-07
6.741676668982e-09
2.797622733974e-08
7.698129260376e-07
1.099724528423e-08
-5.0748044154e-09
7.70017232948e-07
-3.210511965721e-08
7.692723684863e-07
1.18868415532e-08
-8.27707214759e-10
1.628414971256e-09
7.373551359297e-07
-1.840283709739e-09
1.723784038463e-09
7.345454990974e-07
-2.564700962469e-09
2.687106541657e-10
7.312638434073e-07
-3.071115262736e-09
-9.774455552054e-10
7.28847701106e-07
-3.631048622988e-09
-6.672755579484e-10
7.278049822881e-07
-4.452127524747e-09
1.242259436637e-09
7.273603352771e-07
-5.588780359386e-09
4.810221338542e-09
7.26400234314e-07
-6.65539838856e-09
1.090575524951e-08
7.239523670312e-07
-6.331044445917e-09
2.044512655043e-08
7.195408373772e-07
-2.805080585518e-09
3.2620877185e-08
7.137993632688e-07
4.932958662283e-09
4.231885787481e-08
7.086968760381e-07
1.519590872542e-08
3.967299866465e-08
7.067141928577e-07
2.307182091312e-08
2.010031519872e-08
7.07607820511e-07
2.528944107953e-08
-7.29242911248e-09
7.077145612528e-07
-2.95336473777e-08
7.074097490566e-07
2.27179619911e-08
-9.965943847751e-10
2.625009503571e-09
6.776777923071e-07
-2.2750863689e-09
3.002276290213e-09
6.7393041699e-07
-3.349175596607e-09
1.342800286044e-09
6.697795807537e-07
-4.197367273932e-09
-1.292532649995e-10
6.669516981006e-07
-4.91504241312e-09
5.039992503241e-11
6.657224238624e-07
-5.54679134387e-09
1.874007891381e-09
6.650589464853e-07
-5.942490150217e-09
5.205918654498e-09
6.638629071485e-07
-5.489646396815e-09
1.045290910788e-08
6.613660293082e-07
-2.906761715109e-09
1.786223895934e-08
6.572927859025e-07
3.095396754664e-09
2.661871598478e-08
6.521697829004e-07
1.283451937879e-08
3.257973361975e-08
6.474983523475e-07
2.357827628517e-08
2.892924169313e-08
6.452680772273e-07
3.07583435916e-08
1.292024627682e-08
6.451092783693e-07
3.191123432081e-08
-8.445324635326e-09
6.450942320273e-07
-2.531488973458e-08
6.455864452026e-07
2.769247051017e-08
-9.989753996719e-10
3.623985221706e-09
6.180140015664e-07
-2.379794282232e-09
4.383096038279e-09
6.133458258253e-07
-3.691400768882e-09
2.654408247817e-09
6.083432098009e-07
-4.771798911183e-09
9.51146794119e-10
6.049981454595e-07
-5.519529869857e-09
7.981325790224e-10
6.033898043615e-07
-5.861157174207e-09
2.215636023781e-09
6.0240877068e-07
-5.577073598927e-09
4.921834745416e-09
6.01056337166e-07
-4.089066875084e-09
8.96490098564e-09
5.987155333897e-07
-4.091097161783e-10
1.418227967749e-08
5.951798854361e-07
6.300864199407e-09
1.990873979838e-08
5.907634231244e-07
1.598915999004e-08
2.28914357301e-08
5.865886264273e-07
2.591970566927e-08
1.899869440894e-08
5.841317010284e-07
3.256112975621e-08
6.278820018873e-09
5.833314717908e-07
3.38244689891e-08
-9.708667477828e-09
5.833076074848e-07
-2.185826733271e-08
5.850968500903e-07
3.036784238944e-08
-7.584641528134e-10
4.382449873094e-09
5.584355812031e-07
-1.989108660417e-09
5.613742041492e-09
5.529987409397e-07
-3.363856878536e-09
4.029158920584e-09
5.471898524446e-07
-4.57574150599e-09
2.163034447428e-09
5.431797993404e-07
-5.314570748406e-09
1.536964963029e-09
5.409786048068e-07
-5.415368323765e-09
2.316436416433e-09
5.395514691118e-07
-4.691474306677e-09
4.197942750933e-09
5.380441810628e-07
-2.748971889693e-09
7.022399582052e-09
5.359256051933e-07
1.060973952441e-09
1.037233393256e-08
5.329713894552e-07
7.178414179946e-09
1.379129902557e-08
5.293153217403e-07
1.531448603297e-08
1.475536318344e-08
5.257671092943e-07
2.297102703827e-08
1.134215272645e-08
5.233470558563e-07
2.748023432449e-08
1.76961198263e-09
5.225290192503e-07
2.704800694349e-08
-9.276441659673e-09
5.22463207547e-07
-1.697331350413e-08
5.275492767099e-07
2.216305172845e-08
-3.200532933438e-10
4.990006657219e-07
4.702503694058e-09
-1.123042336968e-09
4.930793368534e-07
6.416733010973e-09
-2.27522368016e-09
4.865825288077e-07
5.181343225565e-09
-3.431308436448e-09
4.818353466839e-07
3.319122518733e-09
-4.159183357092e-09
4.789049597067e-07
2.264843511876e-09
-4.189149964144e-09
4.768668422954e-07
2.346407073869e-09
-3.341144879375e-09
4.750510341444e-07
3.349941810373e-09
-1.38659946899e-09
4.730340804773e-07
5.067857928689e-09
2.026266241085e-09
4.705662122591e-07
6.959471289227e-09
7.142184886298e-09
4.676398742238e-07
8.675382637984e-09
1.357587557192e-08
4.648399161068e-07
8.321674330096e-09
1.992789415529e-08
4.628264868207e-07
4.990135880906e-09
2.458789816706e-08
4.624300052981e-07
-2.890389583825e-09
2.792801029824e-08
4.634851172935e-07
-1.261655031699e-08
4.752873976599e-07
-2.223775896713e-08
3.319245868667e-08
6.36401156259e-11
-6.36401440381e-11
1.034991055984e-06
1.894550394467e-10
-1.258149666037e-10
1.034877550064e-06
4.300526107654e-10
-2.405976796712e-10
1.034728628712e-06
7.984176341621e-10
-3.683652190103e-10
1.034560008051e-06
1.219689666855e-09
-4.212723090108e-10
1.034411388271e-06
1.658732023409e-09
-4.390426673447e-10
1.034298864038e-06
2.144169144816e-09
-4.854374272786e-10
1.034196344235e-06